LAMMPS 2005 Description - v6 Adjusted volume
#DopaDiff data file. Generated by Q Jia. 1/7/16.
537 atoms
7 atom types
532 bonds
10 bond types
624 angles
14 angle types
927 dihedrals
17 dihedral types
159 impropers
10 improper types

0.0000000000000000e+00 1.2300000000000001e+01 xlo xhi
0.0000000000000000e+00 2.1304200000000002e+01 ylo yhi
0 1.9571999999999999e+01 zlo zhi

Masses

1 12.0112
2 12.0112
3 14.0067
4 15.9994
5 1.00797
6 15.9994
7 1.00797

Pair Coeffs # lj/class2

1 0.064 4.01
2 0.054 3.8897
3 0.065 4.07
4 0.24 3.535
5 0.02 2.9052
6 0.274 3.608
7 0.013 1.098

Bond Coeffs # class2

1 1.417 470.836 -627.618 1327.63
2 1.3768 428.88 -738.235 1114.97
3 1.0982 372.825 -803.453 894.317
4 1.501 321.902 -521.821 572.163
5 1.53 299.67 -501.77 679.81
6 1.101 345 -691.89 844.6
7 1.457 365.805 -699.637 998.484
8 1.026 457.459 0 0
9 0.96 493.848 0 0
10 0.97 563.28 -1428.22 1902.12

Angle Coeffs # class2

1 118.9 61.0226 -34.9931 0
2 123.42 73.6781 -21.6787 0
3 117.94 35.1558 -12.4682 0
4 120.05 44.7148 -22.7352 0
5 108.4 43.9594 -8.3924 -9.3379
6 111 44.3234 -9.4454 0
7 110.77 41.453 -10.604 5.129
8 107.66 39.641 -12.921 -2.4318
9 111.91 60.7147 -13.3366 -13.0785
10 110.62 51.3137 -6.7198 -2.6003
11 110 41.6 0 0
12 110 41.6 0 0
13 109 58.5 0 0
14 103.7 49.84 -11.6 -8

BondBond Coeffs

1 68.2856 1.417 1.417
2 48.4754 1.417 1.3768
3 1.0795 1.417 1.0982
4 12.0676 1.417 1.501
5 0 1.501 1.53
6 2.9168 1.501 1.101
7 3.3872 1.53 1.101
8 5.3316 1.101 1.101
9 4.6217 1.53 1.457
10 12.426 1.457 1.101
11 0 1.457 1.026
12 0 1.026 1.026
13 0 1.3768 0.96
14 -9.5 0.97 0.97

BondAngle Coeffs

1 28.8708 28.8708 1.417 1.417
2 58.479 107.681 1.417 1.3768
3 20.0033 24.2183 1.417 1.0982
4 31.0771 47.0579 1.417 1.501
5 0 0 1.501 1.53
6 26.4608 11.7717 1.501 1.101
7 20.754 11.421 1.53 1.101
8 18.103 18.103 1.101 1.101
9 6.0876 16.5702 1.53 1.457
10 42.4332 13.4582 1.457 1.101
11 0 0 1.457 1.026
12 0 0 1.026 1.026
13 0 0 1.3768 0.96
14 22.35 22.35 0.97 0.97

Dihedral Coeffs # class2

1 8.3667 0 1.1932 0 0 0
2 0 0 4.8498 0 0 0
3 0 0 3 0 0 0
4 0 0 3.9661 0 0 0
5 0 0 1.7234 0 0 0
6 0 0 0.75 0 0 0
7 0 0 1.8769 0 0 0
8 0 0 4.4072 0 0 0
9 0 0 1.559 0 0 0
10 -0.2802 0 -0.0678 0 -0.0122 0
11 -0.2801 0 -0.0678 0 -0.0122 0
12 0 0 0 0 0.158 0
13 -0.0228 0 0.028 0 -0.1863 0
14 -0.2428 0 0.4065 0 -0.3079 0
15 -0.1432 0 0.0617 0 -0.1083 0
16 0 0 0 0 0.05 0
17 0 0 0 0 0.05 0

AngleAngleTorsion Coeffs

1 0 118.9 118.9
2 -21.0247 118.9 123.42
3 0 123.42 123.42
4 -4.8141 118.9 117.94
5 4.2296 123.42 117.94
6 0 123.42 109
7 0.3598 117.94 117.94
8 -14.4097 118.9 120.05
9 4.4444 117.94 120.05
10 0 120.05 108.4
11 -5.8888 120.05 111
12 0 108.4 111.91
13 0 108.4 110.77
14 -15.7572 110.77 111.91
15 -12.564 110.77 110.77
16 0 111.91 110
17 0 110.62 110

EndBondTorsion Coeffs

1 -0.1185 6.3204 0 -0.1185 6.3204 0 1.417 1.417
2 0 0.2655 0 0 4.8905 0 1.417 1.3768
3 0 0 0 0 0 0 1.3768 1.3768
4 0 -6.8958 0 0 -0.4669 0 1.417 1.0982
5 0 4.2641 0 0 -1.5867 0 1.3768 1.0982
6 0 0 0 0 0 0 1.417 0.96
7 0 -0.689 0 0 -0.689 0 1.0982 1.0982
8 0 -0.6918 0 0 0.2421 0 1.417 1.501
9 0 -0.4879 0 0 -1.797 0 1.0982 1.501
10 0 0 0 0 0 0 1.417 1.53
11 -0.5835 1.122 0.3978 1.3997 0.7756 0 1.417 1.101
12 0 0 0 0 0 0 1.501 1.457
13 0 0 0 0 0 0 1.501 1.101
14 0.196 0.7056 0.112 0.1022 0.209 0.6433 1.101 1.457
15 0.213 0.312 0.0777 0.213 0.312 0.0777 1.101 1.101
16 0 0 0 0 0 0 1.53 1.026
17 0 0 0 0 0 0 1.101 1.026

MiddleBondTorsion Coeffs

1 27.5989 -2.312 0 1.417
2 0 4.8255 0 1.417
3 0 0 0 1.417
4 0 -1.1521 0 1.417
5 0 5.5432 0 1.417
6 0 0 0 1.3768
7 0 4.8228 0 1.417
8 0 9.1792 0 1.417
9 0 3.9421 0 1.417
10 0 0 0 1.501
11 -5.5679 1.4083 0.301 1.501
12 0 0 0 1.53
13 0 0 0 1.53
14 -10.4959 -0.7647 -0.0545 1.53
15 -14.261 -0.5322 -0.4864 1.53
16 0 0 0 1.457
17 0 0 0 1.457

BondBond13 Coeffs

1 53 1.417 1.417
2 -2.2436 1.417 1.3768
3 0 1.3768 1.3768
4 -6.2741 1.417 1.0982
5 2.0517 1.3768 1.0982
6 0 1.417 0.96
7 -1.7077 1.0982 1.0982
8 2.5085 1.417 1.501
9 0.8743 1.0982 1.501
10 0 1.417 1.53
11 -3.4826 1.417 1.101
12 0 1.501 1.457
13 0 1.501 1.101
14 0 1.101 1.457
15 0 1.101 1.101
16 0 1.53 1.026
17 0 1.101 1.026

AngleTorsion Coeffs

1 1.9767 1.0239 0 1.9767 1.0239 0 118.9 118.9
2 0 10.0155 0 0 1.7404 0 118.9 123.42
3 0 0 0 0 0 0 123.42 123.42
4 0 2.5014 0 0 2.7147 0 118.9 117.94
5 0 2.5706 0 0 1.8729 0 123.42 117.94
6 0 0 0 0 0 0 123.42 109
7 0 2.4501 0 0 2.4501 0 117.94 117.94
8 0 3.8987 0 0 -4.4683 0 118.9 120.05
9 0 3.4601 0 0 -0.1242 0 117.94 120.05
10 0 0 0 0 0 0 120.05 108.4
11 0.2251 0.6548 0.1237 4.6266 0.1632 0.0461 120.05 111
12 0 0 0 0 0 0 108.4 111.91
13 0 0 0 0 0 0 108.4 110.77
14 0.5111 1.6328 -1.0155 -1.1075 0.282 0.8318 110.77 111.91
15 -0.8085 0.5569 -0.2466 -0.8085 0.5569 -0.2466 110.77 110.77
16 0 0 0 0 0 0 111.91 110
17 0 0 0 0 0 0 110.62 110

Improper Coeffs # class2

1 7.1794 0
2 13.0421 0
3 7.6012 0
4 7.8153 0
5 0 0
6 0 0
7 0 0
8 0 0
9 0 0
10 0 0

AngleAngle Coeffs

1 0 0 0 118.9 118.9 118.9
2 0 0 0 118.9 123.42 123.42
3 0 0 0 118.9 117.94 117.94
4 0 0 0 120.05 118.9 120.05
5 0 0 0 110 110 110
6 1.0827 2.0403 -1.8202 108.4 110.77 111
7 2.3794 3.0118 2.3794 111 107.66 111
8 0.2738 -0.4825 0.2738 110.77 107.66 110.77
9 2.4286 0.5381 -2.5301 111.91 110.62 110.77
10 2.4321 -3.5496 2.4321 110.62 107.66 110.62

Atoms # full

5 1 1 0.0000000000000000e+00 2.8065946412705127e+00 5.7162711231387942e-01 1.7255155469874293e+00 0 0 0
6 1 1 0.0000000000000000e+00 4.0310659784955236e+00 1.2720768394235606e+00 1.7522625820271958e+00 0 0 0
7 1 1 0.0000000000000000e+00 4.0265716027010576e+00 2.6923923826438561e+00 1.8848467377234011e+00 0 0 0
8 1 1 0.0000000000000000e+00 2.8323875171639603e+00 3.4359172514657228e+00 1.8569187473589090e+00 0 0 0
9 1 1 0.0000000000000000e+00 5.2663814153523658e+00 5.8196490835450776e-01 1.5965666641834821e+00 0 0 0
12 1 1 0.0000000000000000e+00 5.2511716199117888e+00 3.3986576935277228e+00 1.7271518591529154e+00 0 0 0
104 2 1 0.0000000000000000e+00 1.2287321450784768e+01 7.1528910844786675e-01 5.1366432867215543e+00 -1 0 0
108 2 1 0.0000000000000000e+00 2.4766638266456926e+00 7.1464263774265646e-01 5.1699217387544598e+00 0 0 0
121 2 1 0.0000000000000000e+00 1.2272217054287999e+01 2.1137965973806638e+00 5.0851383888029380e+00 -1 0 0
122 2 1 0.0000000000000000e+00 1.2213660450029249e+00 2.8027217027161209e+00 5.0762755575995442e+00 0 0 0
125 2 1 0.0000000000000000e+00 2.4502481532043592e+00 2.1221120136048741e+00 5.1927798751628451e+00 0 0 0
126 2 1 0.0000000000000000e+00 3.6662459525904003e+00 2.8666223920954406e+00 5.2006783357253923e+00 0 0 0
10 1 1 0.0000000000000000e+00 6.4885751154775884e+00 1.2821018195377212e+00 1.7315949376464679e+00 0 0 0
11 1 1 0.0000000000000000e+00 6.4666223671054741e+00 2.6968973585785498e+00 1.6616935171735003e+00 0 0 0
123 2 1 0.0000000000000000e+00 1.2472376720348159e+00 4.2241269228381242e+00 4.9417796551814774e+00 0 0 0
127 2 1 0.0000000000000000e+00 3.6472008822649000e+00 4.2710119256369863e+00 5.0318659983458280e+00 0 0 0
2 1 1 0.0000000000000000e+00 1.5849871172597803e+00 1.2965175515304772e+00 1.7873343673218716e+00 0 0 0
3 1 1 0.0000000000000000e+00 1.6041156480284862e+00 2.7424949263712830e+00 1.7350246382996479e+00 0 0 0
124 2 1 0.0000000000000000e+00 1.4467982678867383e-02 4.9427349670405052e+00 5.0514745349493140e+00 0 0 0
128 2 1 0.0000000000000000e+00 2.4360509819267393e+00 4.9664827394480424e+00 4.9333165757425865e+00 0 0 0
112 2 1 0.0000000000000000e+00 4.8903619713609521e+00 7.5644556178600753e-01 5.1470327807028209e+00 0 0 0
129 2 1 0.0000000000000000e+00 4.8943955911682107e+00 2.1636794042673393e+00 5.1824671127496797e+00 0 0 0
132 2 1 0.0000000000000000e+00 4.8699868032621447e+00 4.9866959962980424e+00 5.0199975983461096e+00 0 0 0
25 1 1 0.0000000000000000e+00 2.8394822119611849e+00 4.8477375602559274e+00 1.7724167220088074e+00 0 0 0
29 1 1 0.0000000000000000e+00 5.2690296228776159e+00 4.8157087568045585e+00 1.6298524009987467e+00 0 0 0
138 2 1 0.0000000000000000e+00 1.1028111931526247e+01 2.8862140842360837e+00 4.9639845794988444e+00 0 0 0
139 2 1 0.0000000000000000e+00 1.1019331257032698e+01 4.2818832557072319e+00 4.9475599066532112e+00 0 0 0
13 1 1 0.0000000000000000e+00 7.7300007873130134e+00 5.7679952006702451e-01 1.8269830091452786e+00 0 0 0
16 1 1 0.0000000000000000e+00 7.7141013044518099e+00 3.3934377130506168e+00 1.6867788040931919e+00 0 0 0
1 1 1 0.0000000000000000e+00 3.4787990481885317e-01 5.7312100571688962e-01 1.6096162929893221e+00 0 0 0
4 1 1 0.0000000000000000e+00 3.9321080307779099e-01 3.4546437424793508e+00 1.6693323101304911e+00 0 0 0
130 2 1 0.0000000000000000e+00 6.0887312106647258e+00 2.8895746378374336e+00 5.0938592462441319e+00 0 0 0
14 1 1 0.0000000000000000e+00 8.9775231905510893e+00 1.2920120502925840e+00 1.7738894544224773e+00 0 0 0
15 1 1 0.0000000000000000e+00 8.9447567548680986e+00 2.7138304226644254e+00 1.6736260079360874e+00 0 0 0
17 1 1 0.0000000000000000e+00 1.0245201888099635e+01 5.8190326740912590e-01 1.7797708811113877e+00 0 0 0
18 1 1 0.0000000000000000e+00 1.1417001821696328e+01 1.3345255146822390e+00 1.6052685347743301e+00 0 0 0
19 1 1 0.0000000000000000e+00 1.1423254590941228e+01 2.7552092076169568e+00 1.6231806024001436e+00 0 0 0
20 1 1 0.0000000000000000e+00 1.0160652903234162e+01 3.4336010264557304e+00 1.6206517033477896e+00 0 0 0
116 2 1 0.0000000000000000e+00 7.3276348743954225e+00 7.4062223500405011e-01 5.1804916920902970e+00 0 0 0
120 2 1 0.0000000000000000e+00 9.7672164979159124e+00 7.6827834316056465e-01 5.1236638008562867e+00 0 0 0
133 2 1 0.0000000000000000e+00 7.3076819094998759e+00 2.1641610054890812e+00 5.1408304301358330e+00 0 0 0
134 2 1 0.0000000000000000e+00 8.5299666542819210e+00 2.8824641473273922e+00 5.0264656413626501e+00 0 0 0
137 2 1 0.0000000000000000e+00 9.7742901849493506e+00 2.1968206781135766e+00 5.0346612113250853e+00 0 0 0
131 2 1 0.0000000000000000e+00 6.0949749551690369e+00 4.2885676996403816e+00 5.0052699310631112e+00 0 0 0
135 2 1 0.0000000000000000e+00 8.5558490753165710e+00 4.2939514337527056e+00 5.0335800722826765e+00 0 0 0
136 2 1 0.0000000000000000e+00 7.3125136118991820e+00 4.9880298832634971e+00 5.0555657920944510e+00 0 0 0
140 2 1 0.0000000000000000e+00 9.7808254304375755e+00 4.9872413067499144e+00 5.0306215794710294e+00 0 0 0
33 1 1 0.0000000000000000e+00 7.6883346069146832e+00 4.8134268248466885e+00 1.6697452063984524e+00 0 0 0
21 1 1 0.0000000000000000e+00 3.8180414594568091e-01 4.8522202458558876e+00 1.6629044222186760e+00 0 0 0
37 1 1 0.0000000000000000e+00 1.0106995624822394e+01 4.8500175842275217e+00 1.5803918654939932e+00 0 0 0
26 1 1 0.0000000000000000e+00 4.0582481596840347e+00 5.5495031957563583e+00 1.6956686256134428e+00 0 0 0
30 1 1 0.0000000000000000e+00 6.4722975659627107e+00 5.5353926797815465e+00 1.6737325588357193e+00 0 0 0
27 1 1 0.0000000000000000e+00 4.0644879130333642e+00 6.9595194178067157e+00 1.7120256950838413e+00 0 0 0
28 1 1 0.0000000000000000e+00 2.8481185841424144e+00 7.6777565459850239e+00 1.6806058123252055e+00 0 0 0
32 1 1 0.0000000000000000e+00 5.2827332253889221e+00 7.6699526287409894e+00 1.7577077483218593e+00 0 0 0
45 1 1 0.0000000000000000e+00 2.8525434361350706e+00 9.0875584267027332e+00 1.7184672400968828e+00 0 0 0
49 1 1 0.0000000000000000e+00 5.2686886980760121e+00 9.1101533411532891e+00 1.8089254375600858e+00 0 0 0
141 2 1 0.0000000000000000e+00 2.1668479026754213e-05 6.3364675079150246e+00 5.0167599756691565e+00 0 0 0
142 2 1 0.0000000000000000e+00 1.2276505746662290e+00 7.0925650944087861e+00 4.9869507016632859e+00 0 0 0
143 2 1 0.0000000000000000e+00 1.2201718112732998e+00 8.5058644824903720e+00 4.9572885835296976e+00 0 0 0
145 2 1 0.0000000000000000e+00 2.4520241722579748e+00 6.3935744254181852e+00 4.9844100588063034e+00 0 0 0
146 2 1 0.0000000000000000e+00 3.6789157307597287e+00 7.0970501146849045e+00 5.0554397821476913e+00 0 0 0
147 2 1 0.0000000000000000e+00 3.6865245266437761e+00 8.5099086338885730e+00 5.1138063400082778e+00 0 0 0
31 1 1 0.0000000000000000e+00 6.4819674895852071e+00 6.9499381737651662e+00 1.7004810248889672e+00 0 0 0
144 2 1 0.0000000000000000e+00 1.2291948252717670e+01 9.2518110981306592e+00 4.9532829181964813e+00 -1 0 0
148 2 1 0.0000000000000000e+00 2.4492281891349159e+00 9.2364030373866228e+00 5.0153975427761184e+00 0 0 0
22 1 1 0.0000000000000000e+00 1.6240492856115547e+00 5.5535269391062076e+00 1.6976765874249000e+00 0 0 0
23 1 1 0.0000000000000000e+00 1.6232177065230615e+00 6.9875333029980542e+00 1.6848888785724900e+00 0 0 0
165 2 1 0.0000000000000000e+00 2.4713304520968968e+00 1.0660462957808758e+01 5.1104544219062520e+00 0 0 0
161 2 1 0.0000000000000000e+00 1.2287622601418018e+01 1.0643353765486241e+01 5.0689196097193241e+00 -1 0 0
149 2 1 0.0000000000000000e+00 4.8821871763892961e+00 6.4025030811111243e+00 5.0838753602566991e+00 0 0 0
152 2 1 0.0000000000000000e+00 4.8923456756256121e+00 9.2222603295223209e+00 5.2383262033801676e+00 0 0 0
169 2 1 0.0000000000000000e+00 4.8798638804211709e+00 1.0635497726499915e+01 5.2070413596350216e+00 0 0 0
46 1 1 0.0000000000000000e+00 4.0580590612965324e+00 9.8145978640763190e+00 1.7869453798985329e+00 0 0 0
50 1 1 0.0000000000000000e+00 6.4835707813192682e+00 9.7987238678803621e+00 1.7882873614461401e+00 0 0 0
42 1 1 0.0000000000000000e+00 1.6408131591756769e+00 9.8077666143938611e+00 1.7199240642850731e+00 0 0 0
158 2 1 0.0000000000000000e+00 1.1058571307116438e+01 7.0974198539503348e+00 5.0561851796735438e+00 0 0 0
159 2 1 0.0000000000000000e+00 1.1054492899343263e+01 8.4826486079142178e+00 4.9786259204222985e+00 0 0 0
36 1 1 0.0000000000000000e+00 7.6858616414398115e+00 7.6709774142431124e+00 1.6309885408619502e+00 0 0 0
53 1 1 0.0000000000000000e+00 7.6762007304914723e+00 9.0903159824036663e+00 1.7035650363926336e+00 0 0 0
34 1 1 0.0000000000000000e+00 8.8809689652549704e+00 5.5613534679229044e+00 1.6632891028913306e+00 0 0 0
38 1 1 0.0000000000000000e+00 1.1380776494377509e+01 5.5655903562428959e+00 1.6122601357667503e+00 0 0 0
24 1 1 0.0000000000000000e+00 3.7523329685402435e-01 7.7087827452102946e+00 1.5959035655852822e+00 0 0 0
41 1 1 0.0000000000000000e+00 3.9621979835182131e-01 9.1272302829007117e+00 1.7168004904821763e+00 0 0 0
35 1 1 0.0000000000000000e+00 8.9008100594770916e+00 6.9843093262454143e+00 1.6513977930126307e+00 0 0 0
39 1 1 0.0000000000000000e+00 1.1406930667679575e+01 6.9806859406322257e+00 1.5994599794155135e+00 0 0 0
40 1 1 0.0000000000000000e+00 1.0132888742031534e+01 7.6839704414660313e+00 1.6536305544914207e+00 0 0 0
57 1 1 0.0000000000000000e+00 1.0128619418429418e+01 9.0893367850000999e+00 1.6213905876622536e+00 0 0 0
150 2 1 0.0000000000000000e+00 6.1063631582681435e+00 7.1257622433114012e+00 5.1759128714498273e+00 0 0 0
151 2 1 0.0000000000000000e+00 6.1188112852538064e+00 8.5426020491858914e+00 5.2428221880920285e+00 0 0 0
153 2 1 0.0000000000000000e+00 7.3316481772669135e+00 6.4019113196647339e+00 5.1077452976826807e+00 0 0 0
154 2 1 0.0000000000000000e+00 8.5602555661234447e+00 7.1092271622962846e+00 5.0658720293166519e+00 0 0 0
155 2 1 0.0000000000000000e+00 8.5732822246661886e+00 8.5038901540492784e+00 5.0616301262030134e+00 0 0 0
157 2 1 0.0000000000000000e+00 9.7982028925204716e+00 6.4204744138197540e+00 5.0582123578489044e+00 0 0 0
156 2 1 0.0000000000000000e+00 7.3560895254090699e+00 9.2376176288105913e+00 5.1551411852955793e+00 0 0 0
160 2 1 0.0000000000000000e+00 9.8120889267924678e+00 9.1945085835757787e+00 5.0063034986988209e+00 0 0 0
177 2 1 0.0000000000000000e+00 9.7873613650398301e+00 1.0628512118547354e+01 5.0610061883043915e+00 0 0 0
173 2 1 0.0000000000000000e+00 7.3046020528754472e+00 1.0642346496450894e+01 5.1158581909740262e+00 0 0 0
54 1 1 0.0000000000000000e+00 8.9056439931571063e+00 9.8031616756723139e+00 1.7006801773689781e+00 0 0 0
58 1 1 0.0000000000000000e+00 1.1397873002836251e+01 9.7584797353732675e+00 1.5825422167769536e+00 0 0 0
47 1 1 0.0000000000000000e+00 4.0498343942087063e+00 1.1231688461626058e+01 1.7689618585358693e+00 0 0 0
51 1 1 0.0000000000000000e+00 6.5037702001141682e+00 1.1215640084903459e+01 1.7457103980718358e+00 0 0 0
48 1 1 0.0000000000000000e+00 2.8446686051202623e+00 1.1930235226879979e+01 1.7436898556606246e+00 0 0 0
52 1 1 0.0000000000000000e+00 5.2694292303017809e+00 1.1951840811114479e+01 1.7344877309977149e+00 0 0 0
65 1 1 0.0000000000000000e+00 2.8367207867429958e+00 1.3337658627432159e+01 1.6188776854831564e+00 0 0 0
66 1 1 0.0000000000000000e+00 4.0412997461687823e+00 1.4071141261457461e+01 1.6309201169514949e+00 0 0 0
69 1 1 0.0000000000000000e+00 5.2760421008906517e+00 1.3369829568260753e+01 1.6849989324702488e+00 0 0 0
162 2 1 0.0000000000000000e+00 1.2205401226306685e+00 1.1350440327974400e+01 5.0841484934393177e+00 0 0 0
163 2 1 0.0000000000000000e+00 1.2338463076015411e+00 1.2767425303337102e+01 5.0527170624428903e+00 0 0 0
164 2 1 0.0000000000000000e+00 1.2279105864465690e+01 1.3459519326552366e+01 5.0534612398956646e+00 -1 0 0
166 2 1 0.0000000000000000e+00 3.6791545986113618e+00 1.1344260954545376e+01 5.1418766443079456e+00 0 0 0
167 2 1 0.0000000000000000e+00 3.6781751523222979e+00 1.2762809590843293e+01 5.0649775683275768e+00 0 0 0
168 2 1 0.0000000000000000e+00 2.4486306052927422e+00 1.3480894611070500e+01 5.0820131945853309e+00 0 0 0
70 1 1 0.0000000000000000e+00 6.4934611376287963e+00 1.4053181206362817e+01 1.6582816543132195e+00 0 0 0
181 2 1 0.0000000000000000e+00 1.2283654441171207e+01 1.4849652094313489e+01 5.0740561718472499e+00 -1 0 0
185 2 1 0.0000000000000000e+00 2.4222592733645634e+00 1.4889357044837709e+01 5.0921722555842193e+00 0 0 0
43 1 1 0.0000000000000000e+00 1.6230275816917772e+00 1.1213956488858678e+01 1.7246388118073643e+00 0 0 0
62 1 1 0.0000000000000000e+00 1.6115663014750043e+00 1.4054372255582917e+01 1.5731446701053604e+00 0 0 0
182 2 1 0.0000000000000000e+00 1.1945431898350023e+00 1.5585786433435551e+01 5.0949151436460536e+00 0 0 0
186 2 1 0.0000000000000000e+00 3.6341988348516541e+00 1.5616287350195876e+01 5.0996463974899786e+00 0 0 0
172 2 1 0.0000000000000000e+00 4.8853336592297385e+00 1.3479383714735755e+01 5.0978207948121872e+00 0 0 0
189 2 1 0.0000000000000000e+00 4.8698633746148943e+00 1.4889754869342037e+01 5.0979047336949774e+00 0 0 0
67 1 1 0.0000000000000000e+00 4.0511881494907280e+00 1.5470965522324931e+01 1.6885782696966147e+00 0 0 0
71 1 1 0.0000000000000000e+00 6.5186730907970754e+00 1.5465795500171607e+01 1.6580892105895180e+00 0 0 0
63 1 1 0.0000000000000000e+00 1.5702066586921188e+00 1.5487740388372865e+01 1.6145277501616346e+00 0 0 0
178 2 1 0.0000000000000000e+00 1.1020082301303640e+01 1.1362943490438964e+01 5.0848203249248600e+00 0 0 0
179 2 1 0.0000000000000000e+00 1.0997825817384843e+01 1.2752704324791747e+01 5.0522671130761596e+00 0 0 0
198 2 1 0.0000000000000000e+00 1.1026701939026044e+01 1.5528209503185819e+01 4.9517345018999768e+00 0 0 0
56 1 1 0.0000000000000000e+00 7.7284838504568905e+00 1.1919389346377450e+01 1.7544846839045893e+00 0 0 0
73 1 1 0.0000000000000000e+00 7.6945585246507582e+00 1.3328931317361517e+01 1.6559847717162726e+00 0 0 0
55 1 1 0.0000000000000000e+00 8.9146106123559079e+00 1.1201460017102194e+01 1.7802943479123075e+00 0 0 0
59 1 1 0.0000000000000000e+00 1.1398163091326534e+01 1.1185701038344215e+01 1.7351155209254630e+00 0 0 0
44 1 1 0.0000000000000000e+00 3.9176714682459141e-01 1.1917483190146044e+01 1.5887268721601191e+00 0 0 0
61 1 1 0.0000000000000000e+00 3.8096375852725078e-01 1.3338081111780472e+01 1.6251877263538714e+00 0 0 0
60 1 1 0.0000000000000000e+00 1.0157111087727211e+01 1.1896624780832234e+01 1.7451526745757913e+00 0 0 0
74 1 1 0.0000000000000000e+00 8.9384170340030060e+00 1.4034313217389386e+01 1.6093082500800600e+00 0 0 0
77 1 1 0.0000000000000000e+00 1.0174434604723007e+01 1.3320922801891120e+01 1.6185743035212259e+00 0 0 0
78 1 1 0.0000000000000000e+00 1.1410389829985979e+01 1.4016080935711278e+01 1.5801692304098740e+00 0 0 0
170 2 1 0.0000000000000000e+00 6.0808735903479327e+00 1.1369993474923229e+01 5.1950076845608626e+00 0 0 0
171 2 1 0.0000000000000000e+00 6.1114487475199244e+00 1.2785034138779638e+01 5.1711751293025063e+00 0 0 0
174 2 1 0.0000000000000000e+00 8.5417115965055217e+00 1.1340068637563817e+01 5.1403256291778279e+00 0 0 0
175 2 1 0.0000000000000000e+00 8.5270862081207408e+00 1.2738959102980992e+01 5.1319963697582551e+00 0 0 0
176 2 1 0.0000000000000000e+00 7.3322985806342205e+00 1.3489464777790330e+01 5.1503678200036154e+00 0 0 0
180 2 1 0.0000000000000000e+00 9.7571957810357475e+00 1.3437279958101648e+01 5.0964738380323178e+00 0 0 0
197 2 1 0.0000000000000000e+00 9.7785231310088516e+00 1.4859298083263239e+01 5.0238345709690710e+00 0 0 0
193 2 1 0.0000000000000000e+00 7.3345035229643161e+00 1.4893013380537687e+01 5.1064555168176406e+00 0 0 0
190 2 1 0.0000000000000000e+00 6.0918364706546901e+00 1.5618302128925107e+01 5.1155090016636331e+00 0 0 0
194 2 1 0.0000000000000000e+00 8.5616732357779739e+00 1.5602755554454879e+01 5.1187450031231778e+00 0 0 0
75 1 1 0.0000000000000000e+00 8.9391282499173688e+00 1.5431988891544409e+01 1.5669437838345392e+00 0 0 0
79 1 1 0.0000000000000000e+00 1.1399856782034369e+01 1.5415988620344985e+01 1.6495926508180039e+00 0 0 0
88 1 1 0.0000000000000000e+00 2.8375453587374930e+00 2.0439378179374806e+01 1.6352446526917854e+00 0 0 0
92 1 1 0.0000000000000000e+00 5.2818052023119622e+00 2.0454169368598464e+01 1.6462921323336115e+00 0 0 0
103 2 1 0.0000000000000000e+00 1.2300699785686768e+00 2.7362357206698020e-02 5.1903849767641370e+00 0 0 0
107 2 1 0.0000000000000000e+00 3.6845815815374485e+00 4.3567699905079880e-02 5.0860267322002937e+00 0 0 0
102 2 1 0.0000000000000000e+00 1.1647784283807041e+00 1.9904690205995788e+01 5.1943704600081873e+00 0 -1 0
106 2 1 0.0000000000000000e+00 3.6432469584444234e+00 1.9943950174778237e+01 5.0215201298307237e+00 0 -1 0
72 1 1 0.0000000000000000e+00 5.2890779640772880e+00 1.6160243248375060e+01 1.7510048934634423e+00 0 0 0
68 1 1 0.0000000000000000e+00 2.8203524686641930e+00 1.6208108108321653e+01 1.6589133586402234e+00 0 0 0
101 2 1 0.0000000000000000e+00 1.2201556291132272e+01 1.9200375766472483e+01 5.0366222251644217e+00 -1 -1 0
105 2 1 0.0000000000000000e+00 2.4069586820675228e+00 1.9254992233787121e+01 5.1429607346234913e+00 0 -1 0
85 1 1 0.0000000000000000e+00 2.8387026359297964e+00 1.7607534141665322e+01 1.6455098983772565e+00 0 0 0
86 1 1 0.0000000000000000e+00 4.0842259463819772e+00 1.8279004148274964e+01 1.6107239202860137e+00 0 0 0
87 1 1 0.0000000000000000e+00 4.0757994233366395e+00 1.9726751299638465e+01 1.6084546819010208e+00 0 0 0
89 1 1 0.0000000000000000e+00 5.2872918835015525e+00 1.7573217435478131e+01 1.6688427939292498e+00 0 0 0
183 2 1 0.0000000000000000e+00 1.1949651556761280e+00 1.7027748039808383e+01 5.1005552882918757e+00 0 0 0
184 2 1 0.0000000000000000e+00 1.2245307165282400e+01 1.7731194593527448e+01 5.0669422443038066e+00 -1 0 0
187 2 1 0.0000000000000000e+00 3.6144546326853133e+00 1.7056269783357404e+01 5.1274365743705834e+00 0 0 0
188 2 1 0.0000000000000000e+00 2.4027822772435012e+00 1.7789798133239618e+01 5.1343232530513507e+00 0 0 0
90 1 1 0.0000000000000000e+00 6.5112208823173106e+00 1.8289157182102716e+01 1.6056644116745220e+00 0 0 0
91 1 1 0.0000000000000000e+00 6.4907051506597453e+00 1.9720382960353625e+01 1.6822767735405988e+00 0 0 0
82 1 1 0.0000000000000000e+00 1.5901821760012129e+00 1.8293202832045964e+01 1.6566043121829779e+00 0 0 0
83 1 1 0.0000000000000000e+00 1.5988114138239773e+00 1.9727257316569958e+01 1.5718034170373560e+00 0 0 0
109 2 1 0.0000000000000000e+00 4.8267385585346219e+00 1.9204962970872291e+01 4.9591242479583313e+00 0 -1 0
192 2 1 0.0000000000000000e+00 4.8522143356708280e+00 1.7733980950669768e+01 5.1068330905931090e+00 0 0 0
96 1 1 0.0000000000000000e+00 7.7146086749359277e+00 2.0420154216549019e+01 1.7426682306580272e+00 0 0 0
84 1 1 0.0000000000000000e+00 3.6690613952701789e-01 2.0404850079855056e+01 1.5723421101309092e+00 0 0 0
100 1 1 0.0000000000000000e+00 1.0223303205554092e+01 2.0421780159819107e+01 1.7789974002470639e+00 0 0 0
119 2 1 0.0000000000000000e+00 1.0997924844146853e+01 3.7042058948361475e-02 5.1053197004650928e+00 0 0 0
118 2 1 0.0000000000000000e+00 1.0982000933052428e+01 1.9940189939443059e+01 4.9876041293442928e+00 0 -1 0
199 2 1 0.0000000000000000e+00 1.1035617641410747e+01 1.6940397673473125e+01 4.9720073018347302e+00 0 0 0
111 2 1 0.0000000000000000e+00 6.1090016359842476e+00 3.9791203907793456e-02 5.1144439206869254e+00 0 0 0
115 2 1 0.0000000000000000e+00 8.5644986799647782e+00 4.0543138203672155e-02 5.1325394387118539e+00 0 0 0
76 1 1 0.0000000000000000e+00 7.7283714755394977e+00 1.6149950146591564e+01 1.5529672811641380e+00 0 0 0
93 1 1 0.0000000000000000e+00 7.7171956893229092e+00 1.7561022918517363e+01 1.5653790499041131e+00 0 0 0
110 2 1 0.0000000000000000e+00 6.0832206521280066e+00 1.9915117690310694e+01 4.9966534262979296e+00 0 -1 0
114 2 1 0.0000000000000000e+00 8.5616030438172430e+00 1.9904207746614460e+01 5.0182102117227450e+00 0 -1 0
64 1 1 0.0000000000000000e+00 3.2583567118520118e-01 1.6182643809535861e+01 1.5849845851054545e+00 0 0 0
80 1 1 0.0000000000000000e+00 1.0163134398460121e+01 1.6126913765632366e+01 1.6627080325642496e+00 0 0 0
113 2 1 0.0000000000000000e+00 7.3196346154770904e+00 1.9199384428538604e+01 4.9568408246104108e+00 0 -1 0
117 2 1 0.0000000000000000e+00 9.7955921466175635e+00 1.9165631038672181e+01 5.0016157510057910e+00 0 -1 0
81 1 1 0.0000000000000000e+00 3.3143438062327452e-01 1.7582158684300467e+01 1.5706431354027233e+00 0 0 0
94 1 1 0.0000000000000000e+00 8.9201833565817417e+00 1.8270475371017241e+01 1.6749248827833130e+00 0 0 0
95 1 1 0.0000000000000000e+00 8.9606119480920903e+00 1.9697083535905104e+01 1.6820484861903808e+00 0 0 0
97 1 1 0.0000000000000000e+00 1.0140008305522390e+01 1.7573349130520182e+01 1.7018862255865796e+00 0 0 0
98 1 1 0.0000000000000000e+00 1.1361311260619635e+01 1.8292819303749184e+01 1.7270057678311530e+00 0 0 0
99 1 1 0.0000000000000000e+00 1.1414615409333370e+01 1.9699420466921662e+01 1.7416333932339343e+00 0 0 0
191 2 1 0.0000000000000000e+00 6.1079226367552621e+00 1.7042532543106052e+01 5.0833448045072300e+00 0 0 0
195 2 1 0.0000000000000000e+00 8.5878104982872383e+00 1.7009405937392646e+01 5.2117804614786261e+00 0 0 0
196 2 1 0.0000000000000000e+00 7.3712185398348673e+00 1.7742450075797883e+01 5.0253483755597115e+00 0 0 0
200 2 1 0.0000000000000000e+00 9.8587054048897045e+00 1.7691752670546194e+01 5.1664953992643952e+00 0 0 0
228 5 7 0.0000000000000000e+00 4.7480883464352424e+00 2.5466596213056207e+00 8.0287545571715366e+00 0 1 0
267 18 7 0.0000000000000000e+00 2.3874646765230612e+00 4.2087031701939095e+00 8.6979949213202481e+00 0 0 0
227 5 7 0.0000000000000000e+00 4.1355097391163911e+00 1.7465531997506893e+00 9.1687975588320150e+00 0 1 0
226 5 6 0.0000000000000000e+00 4.2867579557584179e+00 1.7504654037264868e+00 8.1988157133095214e+00 0 1 0
329 39 7 0.0000000000000000e+00 3.9634834846762729e-01 2.0092700817973867e+01 7.7209167500700664e+00 1 0 0
480 89 7 0.0000000000000000e+00 1.7208791903979435e+00 1.4655624205846600e+00 9.1188110594754725e+00 0 0 0
398 62 7 0.0000000000000000e+00 2.4924493722586414e+00 5.1265133361676893e+00 1.1037270659041814e+01 0 1 0
328 39 6 0.0000000000000000e+00 5.5753937392395903e-01 2.0999154202415077e+01 8.0527042893432270e+00 1 0 0
330 39 7 0.0000000000000000e+00 1.1967535167150233e+01 1.3989850327636794e-01 8.2081694989092959e+00 0 1 0
266 18 7 0.0000000000000000e+00 1.7267031952225893e+00 5.0649820509962771e+00 7.6544304801133265e+00 0 0 0
265 18 6 0.0000000000000000e+00 1.7338186247230036e+00 4.2189029870844283e+00 7.9477491007654102e+00 0 0 0
360 49 7 0.0000000000000000e+00 5.7203787558775572e+00 4.4267595277661620e+00 8.8933359833141594e+00 0 0 0
478 89 6 0.0000000000000000e+00 1.6044811403025698e+00 2.1100915604980530e+00 9.9045365815821924e+00 0 0 0
503 97 7 0.0000000000000000e+00 5.7943946134095716e+00 2.0853538845800905e+01 8.3437987112370511e+00 0 -1 0
502 97 6 0.0000000000000000e+00 6.7507722516894111e+00 2.0493034031766346e+01 8.0268326671328794e+00 0 -1 0
504 97 7 0.0000000000000000e+00 7.0344627862662517e+00 2.1255274367364510e+01 7.3261718370762132e+00 0 -1 0
482 90 7 0.0000000000000000e+00 1.0322399354059421e+01 2.5799429526676612e+00 8.0288942229066276e+00 -1 1 0
378 55 7 0.0000000000000000e+00 7.9858142323788428e+00 3.0208179439596017e+00 9.0349878866570226e+00 0 1 0
376 55 6 0.0000000000000000e+00 7.4262161415807375e+00 2.5436700034831135e+00 8.5834301710885157e+00 0 1 0
377 55 7 0.0000000000000000e+00 7.9887505671804080e+00 1.8607324967365906e+00 8.1156247721788155e+00 0 1 0
255 14 7 0.0000000000000000e+00 1.0068606059900830e+01 2.1141489493332021e+01 1.0374041941389358e+01 -1 0 0
253 14 6 0.0000000000000000e+00 1.0357948321652891e+01 5.8663253242246316e-01 9.8389998846542035e+00 -1 1 0
481 90 6 0.0000000000000000e+00 1.0809387177136985e+01 3.3605850938424342e+00 8.3154096772238937e+00 -1 1 0
254 14 7 0.0000000000000000e+00 9.8672810388388967e+00 5.0706216589313946e-01 8.9989983495418215e+00 -1 1 0
270 19 7 0.0000000000000000e+00 5.2338546090859426e+00 8.1172155901046352e+00 9.1758993024663731e+00 0 0 0
268 19 6 0.0000000000000000e+00 6.0583545232680116e+00 7.7715588339784807e+00 8.6939866709286520e+00 0 0 0
269 19 7 0.0000000000000000e+00 6.4985486107139598e+00 8.6158165717361701e+00 8.4802791315935391e+00 0 0 0
499 96 6 0.0000000000000000e+00 1.1988364769804468e+01 6.2414040785764184e+00 8.5149022834918249e+00 -1 0 0
473 87 7 0.0000000000000000e+00 1.9568622979477712e+00 8.8668500148940304e+00 6.8520924758515740e+00 0 1 0
358 49 6 0.0000000000000000e+00 5.3196588706837300e+00 4.7292973911041436e+00 8.0846122597358381e+00 0 0 0
492 93 7 0.0000000000000000e+00 4.3093184495562635e+00 7.8061511696114065e+00 1.0143804234883543e+01 0 0 0
483 90 7 0.0000000000000000e+00 1.1076222801153103e+01 3.1232632740748931e+00 9.2190835524164427e+00 -1 1 0
501 96 7 0.0000000000000000e+00 1.1610059096168751e+01 6.9014989673341152e+00 7.8744180744895464e+00 -1 0 0